ANIMSTEPS 10
CRYSTAL
PRIMVEC 1
      10.0000000        0.0000000        0.0000000 
       0.0000000       10.0000000        0.0000000 
       0.0000000        0.0000000       10.0000000 
PRIMCOORD 1
  5 1
    6       0.1000000      0.0000000      0.0000000
    1      -0.8899800     -0.6293100      0.0000000
    1       0.0000000      0.6293100     -0.8899800
    1       0.0000000      0.6293100      0.8899800
    1       0.8899800     -0.6293100      0.0000000
PRIMVEC 2
      10.0000000        0.0000000        0.0000000 
       0.0000000       10.0000000        0.0000000 
       0.0000000        0.0000000       10.0000000 
PRIMCOORD 2
  5 1
    6       0.0312000      0.0147900     -0.0000000
    1      -0.8681200     -0.6191100      0.0000000
    1       0.0055700      0.6289700     -0.8904200
    1       0.0055700      0.6289700      0.8904200
    1       0.9262000     -0.6540400      0.0000000
PRIMVEC 3
      10.0000000        0.0000000        0.0000000 
       0.0000000       10.0000000        0.0000000 
       0.0000000        0.0000000       10.0000000 
PRIMCOORD 3
  5 1
    6       0.0325500      0.0004900      0.0000000
    1      -0.8666900     -0.6184300     -0.0000000
    1       0.0074100      0.6322700     -0.8943500
    1       0.0074100      0.6322700      0.8943500
    1       0.9197200     -0.6470800      0.0000000
PRIMVEC 4
      10.0000000        0.0000000        0.0000000 
       0.0000000       10.0000000        0.0000000 
       0.0000000        0.0000000       10.0000000 
PRIMCOORD 4
  5 1
    6       0.0310100      0.0004800     -0.0000000
    1      -0.8676900     -0.6201000      0.0000000
    1       0.0092600      0.6320100     -0.8940700
    1       0.0092600      0.6320100      0.8940700
    1       0.9185500     -0.6448800     -0.0000000
PRIMVEC 5
      10.0000000        0.0000000        0.0000000 
       0.0000000       10.0000000        0.0000000 
       0.0000000        0.0000000       10.0000000 
PRIMCOORD 5
  5 1
    6       0.0294400      0.0004000      0.0000000
    1      -0.8684900     -0.6215300      0.0000000
    1       0.0108300      0.6318600     -0.8939300
    1       0.0108300      0.6318600      0.8939300
    1       0.9177000     -0.6430700      0.0000000
PRIMVEC 6
      10.0000000        0.0000000        0.0000000 
       0.0000000       10.0000000        0.0000000 
       0.0000000        0.0000000       10.0000000 
PRIMCOORD 6
  5 1
    6       0.0261400      0.0002100      0.0000000
    1      -0.8702900     -0.6245700      0.0000000
    1       0.0141900      0.6315900     -0.8937400
    1       0.0141900      0.6315900      0.8937400
    1       0.9159600     -0.6391200      0.0000000
PRIMVEC 7
      10.0000000        0.0000000        0.0000000 
       0.0000000       10.0000000        0.0000000 
       0.0000000        0.0000000       10.0000000 
PRIMCOORD 7
  5 1
    6       0.0242100      0.0002100      0.0000000
    1      -0.8717600     -0.6267400      0.0000000
    1       0.0165100      0.6314900     -0.8937500
    1       0.0165100      0.6314900      0.8937500
    1       0.9148900     -0.6368600     -0.0000000
PRIMVEC 8
      10.0000000        0.0000000        0.0000000 
       0.0000000       10.0000000        0.0000000 
       0.0000000        0.0000000       10.0000000 
PRIMCOORD 8
  5 1
    6       0.0225800     -0.0000300      0.0000000
    1      -0.8725200     -0.6278700      0.0000000
    1       0.0180000      0.6314300     -0.8937500
    1       0.0180000      0.6314300      0.8937500
    1       0.9142400     -0.6353400      0.0000000
PRIMVEC 9
      10.0000000        0.0000000        0.0000000 
       0.0000000       10.0000000        0.0000000 
       0.0000000        0.0000000       10.0000000 
PRIMCOORD 9
  5 1
    6       0.0219400      0.0001900      0.0000000
    1      -0.8734000     -0.6289300      0.0000000
    1       0.0189400      0.6313000     -0.8936800
    1       0.0189400      0.6313000      0.8936800
    1       0.9138300     -0.6343500     -0.0000000
PRIMVEC 10
      10.0000000        0.0000000        0.0000000 
       0.0000000       10.0000000        0.0000000 
       0.0000000        0.0000000       10.0000000 
PRIMCOORD 10
  5 1
    6       0.0193500     -0.0011300      0.0000000
    1      -0.8736300     -0.6301700      0.0000000
    1       0.0205000      0.6315300     -0.8939800
    1       0.0205000      0.6315300      0.8939800
    1       0.9134300     -0.6327700     -0.0000000
